 Gaussian 09, Revision D.01,
 Gaussian 09:  AM64L-G09RevD.01 24-Apr-2013

 ------------------------
 #P B3LYP/6-311G opt freq
 ------------------------

 ----
 DPNA
 ----
 Symbolic Z-matrix:
 Charge =  0 Multiplicity = 1

 SCF Done:  E(RB3LYP) =  -567.879928301     A.U. after   26 cycles
 SCF Done:  E(RB3LYP) =  -567.947668846     A.U. after   17 cycles
 SCF Done:  E(RB3LYP) =  -567.992376463     A.U. after   15 cycles
 SCF Done:  E(RB3LYP) =  -567.993814658     A.U. after   14 cycles
 SCF Done:  E(RB3LYP) =  -567.993958927     A.U. after   12 cycles
 SCF Done:  E(RB3LYP) =  -567.993971927     A.U. after   11 cycles
 Optimization completed.
    -- Stationary point found.
 Normal termination of Gaussian 09 at Wed Feb  3 17:21:07 2021.

 ------------------------------------------------------------------
 #P Geom=AllCheck Guess=TCheck SCRF=Check GenChk RB3LYP/6-311G Freq
 ------------------------------------------------------------------

 Structure from the checkpoint file:  "DPNA.chk"
 ----
 DPNA
 ----
 Charge =  0 Multiplicity = 1

                         Standard orientation:
 ---------------------------------------------------------------------
 Center     Atomic      Atomic             Coordinates (Angstroms)
 Number     Number       Type             X           Y           Z
 ---------------------------------------------------------------------
      1          6           0       -1.446670    0.658757    0.000000
      2          6           0       -0.206266    1.339685    0.000000
      3          6           0        0.932384    0.835310    0.000000
      4          6           0        1.259865   -0.556901    0.000000
      5          6           0        0.000000   -1.233893    0.000000
      6          6           0       -1.135069   -0.719775    0.000000
      7          7           0       -2.738986    1.243451    0.000000
      8          8           0       -2.813020    2.514964    0.000000
      9          8           0       -3.743958    0.461463    0.000000
     10          7           0        2.486307   -1.124497    0.000000
     11          6           0        3.705189   -0.310929    0.000000
     12          6           0        2.601879   -2.588806    0.000000
     13          1           0        3.435219    0.742635    0.000000
     14          1           0        4.305133   -0.516728    0.888550
     15          1           0        4.305133   -0.516728   -0.888550
     16          1           0        3.653712   -2.860936    0.000000
     17          1           0        2.128762   -3.016515    0.886200
     18          1           0        2.128762   -3.016515   -0.886200
 ---------------------------------------------------------------------

 SCF Done:  E(RB3LYP) =  -567.993971927     A.U. after    1 cycles

 The electronic state is 1-A'.
 Alpha  occ. eigenvalues --  -19.14477 -19.14474 -14.54443 -14.40083 -10.31884
 Alpha  occ. eigenvalues --  -10.28340 -10.24631 -10.24531 -10.23886 -10.23845
 Alpha  occ. eigenvalues --  -10.22520 -10.22493  -1.20654  -1.03599  -1.01534
 Alpha  occ. eigenvalues --   -0.92939  -0.83562  -0.79385  -0.77481  -0.76758
 Alpha  occ. eigenvalues --   -0.68980  -0.61398  -0.59917  -0.56244  -0.54565
 Alpha  occ. eigenvalues --   -0.53990  -0.52309  -0.51774  -0.48448  -0.46972
 Alpha  occ. eigenvalues --   -0.45602  -0.45514  -0.43596  -0.43157  -0.35115
 Alpha  occ. eigenvalues --   -0.34767  -0.31497  -0.29938  -0.29411  -0.29211
 Alpha  occ. eigenvalues --   -0.27414  -0.24396
 Alpha virt. eigenvalues --   -0.16961  -0.10347  -0.06746  -0.01552   0.00551
 Alpha virt. eigenvalues --    0.01450   0.05273   0.06396   0.07814   0.08869
 Alpha virt. eigenvalues --    0.09272   0.10251   0.15782   0.15817   0.16159

 Mulliken charges:
               1
     1  C    0.068054
     2  C    0.071586
     3  C    0.047289
     4  C    0.199442
     5  C    0.040242
     6  C    0.091553
     7  N    0.069215
     8  O   -0.287794
     9  O   -0.287507
    10  N   -0.574115
    11  C   -0.358508
    12  C   -0.354665
    13  H    0.222007
    14  H    0.208339
    15  H    0.208339
    16  H    0.197215
    17  H    0.219654
    18  H    0.219654
 Sum of Mulliken charges =   0.00000

 Dipole moment (field-independent basis, Debye):
    X=              9.5836    Y=             -4.3389    Z=              0.0000  Tot=             10.5201
 Quadrupole moment (field-independent basis, Debye-Ang):
   XX=            -72.3807   YY=            -72.0646   ZZ=            -68.9528
   XY=              0.1836   XZ=              0.0000   YZ=              0.0000

  Exact polarizability: 193.436 -45.185 114.486   0.000   0.000  48.667
 Approx polarizability: 384.747 -92.082 224.980   0.000   0.000  64.779

 ******    1 imaginary frequencies (negative Signs) ******

                      1                      2                      3
                     A"                     A"                     A"
 Frequencies --   -131.9880                48.6868                76.1448
 Red. masses --      1.0706                 2.6657                 5.6457
 Frc consts  --      0.0110                 0.0037                 0.0193
 IR Inten    --      0.5345                 0.1488                 0.0052

                      4                      5                      6
                     A"                     A'                     A"
 Frequencies --     92.3214               115.1906               129.5006
 Red. masses --      1.3512                 7.2273                 5.8549
 Frc consts  --      0.0068                 0.0565                 0.0579
 IR Inten    --      0.0508                 1.0797                 0.0457

                      7                      8                      9
                     A'                     A"                     A'
 Frequencies --    180.3460               192.9140               286.5228
 Red. masses --      4.6070                 3.8465                 4.7005
 Frc consts  --      0.0883                 0.0843                 0.2274
 IR Inten    --      1.0928                 5.0931                 3.0350

                     10                     11                     12
                     A"                     A'                     A"
 Frequencies --    331.6811               417.4041               451.1557
 Red. masses --      7.2743                 4.0625                11.9545
 Frc consts  --      0.4715                 0.4170                 1.4336
 IR Inten    --      0.0771                 1.5143                 0.0000

                     13                     14                     15
                     A'                     A'                     A'
 Frequencies --    454.4557               494.8108               541.2671
 Red. masses --      7.5216                 8.2794                 5.6152
 Frc consts  --      0.9153                 1.1943                 0.9693
 IR Inten    --      3.2388                 2.6963                16.6341

                     16                     17                     18
                     A"                     A'                     A"
 Frequencies --    549.7878               600.7876               600.7971
 Red. masses --     11.7838                 9.1149                10.3263
 Frc consts  --      2.0986                 1.9384                 2.1961
 IR Inten    --      7.8913                 6.0550                27.2443

                     19                     20                     21
                     A'                     A"                     A'
 Frequencies --    685.0842               708.2242               791.8068
 Red. masses --     11.7719                13.5833                 7.3969
 Frc consts  --      3.2553                 4.0142                 2.7324
 IR Inten    --     59.1107                 2.7141                 0.5204

                     22                     23                     24
                     A'                     A'                     A'
 Frequencies --    857.9631              1001.2150              1089.7414
 Red. masses --     13.3712                 3.0757                 1.6228
 Frc consts  --      5.7991                 1.8166                 1.1354
 IR Inten    --      0.4325                43.2026                38.6720

                     25                     26                     27
                     A"                     A'                     A"
 Frequencies --   1133.5331              1145.1674              1178.2904
 Red. masses --      1.2192                 7.8269                 1.3526
 Frc consts  --      0.9230                 6.0475                 1.1064
 IR Inten    --      0.0699                19.7744                 0.8805

                     28                     29                     30
                     A'                     A'                     A'
 Frequencies --   1213.0180              1251.7658              1284.3948
 Red. masses --      4.1775                 3.7803                 4.8320
 Frc consts  --      3.6216                 3.4900                 4.6965
 IR Inten    --      3.5309               369.7206                51.3134

                     31                     32                     33
                     A'                     A'                     A'
 Frequencies --   1335.2739              1347.3091              1418.9916
 Red. masses --      7.8511                 8.4734                14.5288
 Frc consts  --      8.2474                 9.0624                17.2361
 IR Inten    --     14.1421               596.6880               163.2190

                     34                     35                     36
                     A'                     A'                     A"
 Frequencies --   1484.1874              1489.0048              1521.5510
 Red. masses --      1.4233                 1.1363                 1.0439
 Frc consts  --      1.8472                 1.4843                 1.4239
 IR Inten    --    121.2266                 9.9999                29.8637

                     37                     38                     39
                     A"                     A'                     A'
 Frequencies --   1531.4764              1535.7699              1547.1870
 Red. masses --      1.0426                 1.1229                 1.0462
 Frc consts  --      1.4408                 1.5604                 1.4755
 IR Inten    --      0.0813                 9.6352                17.1677

                     40                     41                     42
                     A'                     A'                     A'
 Frequencies --   1615.5078              1900.7495              2026.7783
 Red. masses --      3.0786                11.9827                11.9381
 Frc consts  --      4.7339                25.5067                28.8934
 IR Inten    --    554.9742                 3.9713               409.7932

                     43                     44                     45
                     A'                     A'                     A"
 Frequencies --   3013.1998              3018.6448              3072.9897
 Red. masses --      1.0339                 1.0361                 1.1032
 Frc consts  --      5.5308                 5.5625                 6.1380
 IR Inten    --     39.3887                68.1628                40.0521

                     46                     47                     48
                     A"                     A'                     A'
 Frequencies --   3075.9103              3123.6628              3137.8922
 Red. masses --      1.1035                 1.0996                 1.0987
 Frc consts  --      6.1511                 6.3211                 6.3737
 IR Inten    --     16.6160                 9.0078                17.7241

 - Thermochemistry -
 -------------------
 Temperature   298.150 Kelvin.  Pressure   1.00000 Atm.
 Atom     1 has atomic number  6 and mass  12.00000

 Molecular mass:   162.04293 amu.
 Principal axes and moments of inertia in atomic units:
                           1         2         3
     Eigenvalues --   571.008723895.404434443.74123
           X            0.91043   0.41365   0.00000
           Y           -0.41365   0.91043   0.00000
           Z            0.00000   0.00000   1.00000
 This molecule is an asymmetric top.
 Rotational symmetry number  1.
 Warning -- assumption of classical behavior for rotation
           may cause significant error
 Rotational temperatures (Kelvin)      0.15169     0.02223     0.01949
 Rotational constants (GHZ):           3.16062     0.46330     0.40613
    1 imaginary frequencies ignored.
 Zero-point vibrational energy     329571.6 (Joules/Mol)
                                   78.76950 (Kcal/Mol)
 Warning -- explicit consideration of  17 degrees of freedom as
           vibrations may cause significant error
 Vibrational temperatures:     70.05   109.56   132.83   165.73   186.32
          (Kelvin)            259.48   277.56   412.24   477.21   600.55
                              649.11   653.86   711.92   778.76   791.02
                              864.40   864.41   985.68  1018.98  1139.23
                             1234.42  1440.52  1567.89  1630.90  1647.64
                             1695.30  1745.26  1801.01  1847.96  1921.16
                             1938.47  2041.61  2135.41  2142.34  2189.17
                             2203.45  2209.63  2226.05  2324.35  2734.75
                             2916.08  4335.32  4343.15  4421.34  4425.54
                             4494.25  4514.72

 Zero-point correction=                           0.125527 (Hartree/Particle)
 Thermal correction to Energy=                    0.136440
 Thermal correction to Enthalpy=                  0.137384
 Thermal correction to Gibbs Free Energy=         0.087781
 Sum of electronic and zero-point Energies=           -567.868445
 Sum of electronic and thermal Energies=              -567.857532
 Sum of electronic and thermal Enthalpies=            -567.856588
 Sum of electronic and thermal Free Energies=         -567.906191

                     E (Thermal)             CV                S
                      KCal/Mol        Cal/Mol-Kelvin    Cal/Mol-Kelvin
 Total                   85.617             38.171            104.399
 Electronic               0.000              0.000              0.000
 Translational            0.889              2.981             41.157
 Rotational               0.889              2.981             30.670
 Vibrational             83.840             32.209             32.572
 Vibration     1          0.595              1.978              4.870
 Vibration     2          0.599              1.965              3.988
 Vibration     3          0.602              1.955              3.610
 Vibration     4          0.608              1.937              3.180
 Vibration     5          0.612              1.924              2.953
 Vibration     6          0.629              1.866              2.325
 Vibration     7          0.635              1.850              2.200
 Vibration     8          0.684              1.699              1.494
 Vibration     9          0.714              1.612              1.252
 Vibration    10          0.780              1.432              0.901
 Vibration    11          0.810              1.358              0.792
 Vibration    12          0.813              1.351              0.782
 Vibration    13          0.850              1.262              0.671
 Vibration    14          0.896              1.159              0.563
 Vibration    15          0.905              1.140              0.545
 Vibration    16          0.959              1.030              0.448
 Vibration    17          0.959              1.030              0.448

 Normal termination of Gaussian 09 at Wed Feb  3 17:24:14 2021.
